 DBCSR| CPU Multiplication driver                                           XSMM (U)
 DBCSR| Multrec recursion limit                                              512 (U)
 DBCSR| Multiplication stack size                                           1000 (D)
 DBCSR| Maximum elements for images                                    UNLIMITED (U)
 DBCSR| Multiplicative factor virtual images                                   1 (U)
 DBCSR| Use multiplication densification                                       T (D)
 DBCSR| Multiplication size stacks                                             3 (U)
 DBCSR| Use memory pool for CPU allocation                                     F (U)
 DBCSR| Number of 3D layers                                               SINGLE (U)
 DBCSR| Use MPI memory allocation                                              F (U)
 DBCSR| Use RMA algorithm                                                      F (U)
 DBCSR| Use Communication thread                                               T (U)
 DBCSR| Communication thread load                                             75 (D)
 DBCSR| MPI: My process id                                                     0
 DBCSR| MPI: Number of processes                                             512
 DBCSR| OMP: Current number of threads                                         4
 DBCSR| OMP: Max number of threads                                             4
 DBCSR| Split modifier for TAS multiplication algorithm                  1.0E+00 (U)


  **** **** ******  **  PROGRAM STARTED AT               2023-10-19 20:52:39.729
 ***** ** ***  *** **   PROGRAM STARTED ON                              n2cn1107
 **    ****   ******    PROGRAM STARTED BY                              eprop2d1
 ***** **    ** ** **   PROGRAM PROCESS ID                                195082
  **** **  *******  **  PROGRAM STARTED IN /scratch/hpc-prf-eprop2d/eprop2d1_Jan
                                           /08_develop_new_GW/08_MoS2/46_for_Chr
                                           is_Hans/2_6x6_cell_old_code

 CP2K| version string:                 CP2K version 2023.2 (Development Version)
 CP2K| source code revision number:                                  git:a23222a
 CP2K| cp2kflags: omp libint fftw3 libxc elpa parallel scalapack cosma xsmm plum
 CP2K|            ed2 spglib libvori libbqb libvdwxc
 CP2K| is freely available from                            https://www.cp2k.org/
 CP2K| Program compiled at                         Tue Oct 17 15:58:40 CEST 2023
 CP2K| Program compiled on                                              n2login4
 CP2K| Program compiled for                                                local
 CP2K| Data directory path    /opt/software/pc2/EB-SW/software/CP2K/2023.1-foss-
 CP2K| Input file name                                                    GW.inp

 GLOBAL| Force Environment number                                              1
 GLOBAL| Basis set file name            /scratch/hpc-prf-eprop2d/eprop2d1_Jan/08
 GLOBAL| Potential file name                                      GTH_POTENTIALS
 GLOBAL| MM Potential file name                                     MM_POTENTIAL
 GLOBAL| Coordinate file name                                      __STD_INPUT__
 GLOBAL| Method name                                                        CP2K
 GLOBAL| Project name                                                       MoS2
 GLOBAL| Run type                                                         ENERGY
 GLOBAL| FFT library                                                       FFTW3
 GLOBAL| Diagonalization library                                            ELPA
 GLOBAL| DGEMM library                                                      BLAS
 GLOBAL| Minimum number of eigenvectors for ELPA usage                        16
 GLOBAL| Orthonormality check for eigenvectors                          DISABLED
 GLOBAL| Matrix multiplication library                                     COSMA
 GLOBAL| All-to-all communication in single precision                          F
 GLOBAL| FFTs using library dependent lengths                                  F
 GLOBAL| Grid backend                                                       AUTO
 GLOBAL| Global print level                                               MEDIUM
 GLOBAL| MPI I/O enabled                                                       T
 GLOBAL| Total number of message passing processes                           512
 GLOBAL| Number of threads for this process                                    4
 GLOBAL| This output is from process                                           0
 GLOBAL| Stack size for threads created by OpenMP (OMP_STACKSIZE)        default
 GLOBAL| CPU model name                          AMD EPYC 7763 64-Core Processor
 GLOBAL| CPUID                                                              1002
 GLOBAL| Compiled for CPUID                                                    0

 *** HINT in environment.F:904 :: The compiler target flags (generic) used ***
 *** to build this binary cannot exploit all extensions of this CPU model  ***
 *** (x86_avx2). Consider compiler target flags as part of FCFLAGS and     ***
 *** CFLAGS (ARCH file).                                                   ***


 MEMORY| system memory details [Kb]
 MEMORY|                        rank 0           min           max       average
 MEMORY| MemTotal            263914152     263914148     263914152     263914150
 MEMORY| MemFree             248643656     232215012     250698380     240033409
 MEMORY| Buffers                 89276         19924        326516        105076
 MEMORY| Cached                3373744       3017776       9984780       5193351
 MEMORY| Slab                  1852708       1071788      13548444       8045979
 MEMORY| SReclaimable           226248        172824        472104        300147
 MEMORY| MemLikelyFree       252332924     239825932     254058916     245631984


 *** Fundamental physical constants (SI units) ***

 *** Literature: B. J. Mohr and B. N. Taylor,
 ***             CODATA recommended values of the fundamental physical
 ***             constants: 2006, Web Version 5.1
 ***             http://physics.nist.gov/constants

 Speed of light in vacuum [m/s]                             2.99792458000000E+08
 Magnetic constant or permeability of vacuum [N/A**2]       1.25663706143592E-06
 Electric constant or permittivity of vacuum [F/m]          8.85418781762039E-12
 Planck constant (h) [J*s]                                  6.62606896000000E-34
 Planck constant (h-bar) [J*s]                              1.05457162825177E-34
 Elementary charge [C]                                      1.60217648700000E-19
 Electron mass [kg]                                         9.10938215000000E-31
 Electron g factor [ ]                                     -2.00231930436220E+00
 Proton mass [kg]                                           1.67262163700000E-27
 Fine-structure constant                                    7.29735253760000E-03
 Rydberg constant [1/m]                                     1.09737315685270E+07
 Avogadro constant [1/mol]                                  6.02214179000000E+23
 Boltzmann constant [J/K]                                   1.38065040000000E-23
 Atomic mass unit [kg]                                      1.66053878200000E-27
 Bohr radius [m]                                            5.29177208590000E-11

 *** Conversion factors ***

 [u] -> [a.u.]                                              1.82288848426455E+03
 [Angstrom] -> [Bohr] = [a.u.]                              1.88972613288564E+00
 [a.u.] = [Bohr] -> [Angstrom]                              5.29177208590000E-01
 [a.u.] -> [s]                                              2.41888432650478E-17
 [a.u.] -> [fs]                                             2.41888432650478E-02
 [a.u.] -> [J]                                              4.35974393937059E-18
 [a.u.] -> [N]                                              8.23872205491840E-08
 [a.u.] -> [K]                                              3.15774647902944E+05
 [a.u.] -> [kJ/mol]                                         2.62549961709828E+03
 [a.u.] -> [kcal/mol]                                       6.27509468713739E+02
 [a.u.] -> [Pa]                                             2.94210107994716E+13
 [a.u.] -> [bar]                                            2.94210107994716E+08
 [a.u.] -> [atm]                                            2.90362800883016E+08
 [a.u.] -> [eV]                                             2.72113838565563E+01
 [a.u.] -> [Hz]                                             6.57968392072181E+15
 [a.u.] -> [1/cm] (wave numbers)                            2.19474631370540E+05
 [a.u./Bohr**2] -> [1/cm]                                   5.14048714338585E+03
 

 CELL_TOP| Volume [angstrom^3]:                                      4640.294017
 CELL_TOP| Vector a [angstrom    18.900     0.000     0.000   |a| =    18.900000
 CELL_TOP| Vector b [angstrom    -9.450    16.368     0.000   |b| =    18.900000
 CELL_TOP| Vector c [angstrom     0.000     0.000    15.000   |c| =    15.000000
 CELL_TOP| Angle (b,c), alpha [degree]:                                90.000000
 CELL_TOP| Angle (a,c), beta  [degree]:                                90.000000
 CELL_TOP| Angle (a,b), gamma [degree]:                               120.000000
 CELL_TOP| Numerically orthorhombic:                                          NO
 CELL_TOP| Periodicity                                                        XY

 CELL_UC| Volume [angstrom^3]:                                        128.897056
 CELL_UC| Vector a [angstrom]     3.150     0.000     0.000   |a| =     3.150000
 CELL_UC| Vector b [angstrom]    -1.575     2.728     0.000   |b| =     3.150000
 CELL_UC| Vector c [angstrom]     0.000     0.000    15.000   |c| =    15.000000
 CELL_UC| Angle (b,c), alpha [degree]:                                 90.000000
 CELL_UC| Angle (a,c), beta  [degree]:                                 90.000000
 CELL_UC| Angle (a,b), gamma [degree]:                                120.000000
 CELL_UC| Numerically orthorhombic:                                           NO
 CELL_UC| Periodicity                                                         XY

 GENERATE|  Preliminary Number of Bonds generated:                             0
 GENERATE|  Achieved consistency in connectivity generation.

 CELL| Volume [angstrom^3]:                                          4640.294017
 CELL| Vector a [angstrom]:      18.900     0.000     0.000   |a| =    18.900000
 CELL| Vector b [angstrom]:      -9.450    16.368     0.000   |b| =    18.900000
 CELL| Vector c [angstrom]:       0.000     0.000    15.000   |c| =    15.000000
 CELL| Angle (b,c), alpha [degree]:                                    90.000000
 CELL| Angle (a,c), beta  [degree]:                                    90.000000
 CELL| Angle (a,b), gamma [degree]:                                   120.000000
 CELL| Numerically orthorhombic:                                              NO
 CELL| Periodicity                                                            XY

 CELL_REF| Volume [angstrom^3]:                                      4640.294017
 CELL_REF| Vector a [angstrom    18.900     0.000     0.000   |a| =    18.900000
 CELL_REF| Vector b [angstrom    -9.450    16.368     0.000   |b| =    18.900000
 CELL_REF| Vector c [angstrom     0.000     0.000    15.000   |c| =    15.000000
 CELL_REF| Angle (b,c), alpha [degree]:                                90.000000
 CELL_REF| Angle (a,c), beta  [degree]:                                90.000000
 CELL_REF| Angle (a,b), gamma [degree]:                               120.000000
 CELL_REF| Numerically orthorhombic:                                          NO
 CELL_REF| Periodicity                                                        XY

 *******************************************************************************
 *******************************************************************************
 **                                                                           **
 **     #####                         ##              ##                      **
 **    ##   ##            ##          ##              ##                      **
 **   ##     ##                       ##            ######                    **
 **   ##     ##  ##   ##  ##   #####  ##  ##   ####   ##    #####    #####    **
 **   ##     ##  ##   ##  ##  ##      ## ##   ##      ##   ##   ##  ##   ##   **
 **   ##  ## ##  ##   ##  ##  ##      ####     ###    ##   ######   ######    **
 **    ##  ###   ##   ##  ##  ##      ## ##      ##   ##   ##       ##        **
 **     #######   #####   ##   #####  ##  ##  ####    ##    #####   ##        **
 **           ##                                                    ##        **
 **                                                                           **
 **                                                ... make the atoms dance   **
 **                                                                           **
 **            Copyright (C) by CP2K developers group (2000-2023)             **
 **                      J. Chem. Phys. 152, 194103 (2020)                    **
 **                                                                           **
 *******************************************************************************

 DFT| Spin restricted Kohn-Sham (RKS) calculation                            RKS
 DFT| Multiplicity                                                             1
 DFT| Number of spin states                                                    1
 DFT| Charge                                                                   0
 DFT| Self-interaction correction (SIC)                                       NO
 DFT| Cutoffs: density                                              1.000000E-10
 DFT|          gradient                                             1.000000E-10
 DFT|          tau                                                  1.000000E-10
 DFT|          cutoff_smoothing_range                               0.000000E+00
 DFT| XC density smoothing                                                  NONE
 DFT| XC derivatives                                                          PW

 FUNCTIONAL| PADE:
 FUNCTIONAL| S. Goedecker, M. Teter and J. Hutter, Phys. Rev. B 54, 1703 (1996) 


 QS| Method:                                                                 GPW
 QS| Density plane wave grid type                        NON-SPHERICAL FULLSPACE
 QS| Number of grid levels:                                                    4
 QS| Density cutoff [a.u.]:                                                250.0
 QS| Multi grid cutoff [a.u.]: 1) grid level                               250.0
 QS|                           2) grid level                                83.3
 QS|                           3) grid level                                27.8
 QS|                           4) grid level                                 9.3
 QS| Grid level progression factor:                                          3.0
 QS| Relative density cutoff [a.u.]:                                        50.0
 QS| Interaction thresholds: eps_pgf_orb:                                1.0E-12
 QS|                         eps_filter_matrix:                          0.0E+00
 QS|                         eps_core_charge:                            1.0E-14
 QS|                         eps_rho_gspace:                             1.0E-12
 QS|                         eps_rho_rspace:                             1.0E-12
 QS|                         eps_gvg_rspace:                             1.0E-06
 QS|                         eps_ppl:                                    1.0E-02
 QS|                         eps_ppnl:                                   1.0E-08


 ATOMIC KIND INFORMATION

  1. Atomic kind: Mo                                    Number of atoms:      36

     Orbital Basis Set                                  TZVP-MOLOPT-GTH_upscaled

       Number of orbital shell sets:                                           1
       Number of orbital shells:                                              11
       Number of primitive Cartesian functions:                                7
       Number of Cartesian basis functions:                                   41
       Number of spherical basis functions:                                   35
       Norm type:                                                              2

       Normalised Cartesian orbitals:

                        Set   Shell   Orbital            Exponent    Coefficient

                          1       1    2s                2.540273      -1.345673
                                                         1.999996       0.727257
                                                         0.894040       0.537681
                                                         0.439257       0.138693
                                                         0.189498       0.017367
                                                         0.110000       0.032945
                                                         0.100000      -0.044162

                          1       2    3s                2.540273       0.114163
                                                         1.999996      -0.250260
                                                         0.894040       0.156531
                                                         0.439257       0.021259
                                                         0.189498      -0.094450
                                                         0.110000       0.527481
                                                         0.100000      -0.574755

                          1       3    4s                2.540273       0.776470
                                                         1.999996      -2.724036
                                                         0.894040       1.964078
                                                         0.439257      -0.908890
                                                         0.189498       0.239910
                                                         0.110000      -1.638373
                                                         0.100000       1.543363

                          1       4    5s                2.540273       0.193805
                                                         1.999996       0.674775
                                                         0.894040      -0.282582
                                                         0.439257       0.089402
                                                         0.189498      -0.137139
                                                         0.110000      -0.488537
                                                         0.100000       0.405410

                          1       5    3px               2.540273       3.691791
                                                         1.999996      -3.563133
                                                         0.894040      -0.805476
                                                         0.439257      -0.103576
                                                         0.189498       0.030607
                                                         0.110000       0.070996
                                                         0.100000      -0.059871
                          1       5    3py               2.540273       3.691791
                                                         1.999996      -3.563133
                                                         0.894040      -0.805476
                                                         0.439257      -0.103576
                                                         0.189498       0.030607
                                                         0.110000       0.070996
                                                         0.100000      -0.059871
                          1       5    3pz               2.540273       3.691791
                                                         1.999996      -3.563133
                                                         0.894040      -0.805476
                                                         0.439257      -0.103576
                                                         0.189498       0.030607
                                                         0.110000       0.070996
                                                         0.100000      -0.059871

                          1       6    4px               2.540273       0.129010
                                                         1.999996       0.099026
                                                         0.894040      -0.136173
                                                         0.439257      -0.038137
                                                         0.189498      -0.099149
                                                         0.110000       0.214113
                                                         0.100000      -0.222919
                          1       6    4py               2.540273       0.129010
                                                         1.999996       0.099026
                                                         0.894040      -0.136173
                                                         0.439257      -0.038137
                                                         0.189498      -0.099149
                                                         0.110000       0.214113
                                                         0.100000      -0.222919
                          1       6    4pz               2.540273       0.129010
                                                         1.999996       0.099026
                                                         0.894040      -0.136173
                                                         0.439257      -0.038137
                                                         0.189498      -0.099149
                                                         0.110000       0.214113
                                                         0.100000      -0.222919

                          1       7    5px               2.540273       0.471976
                                                         1.999996       0.044875
                                                         0.894040      -0.003198
                                                         0.439257      -0.397109
                                                         0.189498      -0.027230
                                                         0.110000      -0.427107
                                                         0.100000       0.400879
                          1       7    5py               2.540273       0.471976
                                                         1.999996       0.044875
                                                         0.894040      -0.003198
                                                         0.439257      -0.397109
                                                         0.189498      -0.027230
                                                         0.110000      -0.427107
                                                         0.100000       0.400879
                          1       7    5pz               2.540273       0.471976
                                                         1.999996       0.044875
                                                         0.894040      -0.003198
                                                         0.439257      -0.397109
                                                         0.189498      -0.027230
                                                         0.110000      -0.427107
                                                         0.100000       0.400879

                          1       8    4dx2              2.540273      -1.452114
                                                         1.999996       1.851969
                                                         0.894040       0.336748
                                                         0.439257       0.134418
                                                         0.189498       0.030638
                                                         0.110000      -0.028347
                                                         0.100000       0.029183
                          1       8    4dxy              2.540273      -2.515135
                                                         1.999996       3.207704
                                                         0.894040       0.583264
                                                         0.439257       0.232819
                                                         0.189498       0.053066
                                                         0.110000      -0.049099
                                                         0.100000       0.050546
                          1       8    4dxz              2.540273      -2.515135
                                                         1.999996       3.207704
                                                         0.894040       0.583264
                                                         0.439257       0.232819
                                                         0.189498       0.053066
                                                         0.110000      -0.049099
                                                         0.100000       0.050546
                          1       8    4dy2              2.540273      -1.452114
                                                         1.999996       1.851969
                                                         0.894040       0.336748
                                                         0.439257       0.134418
                                                         0.189498       0.030638
                                                         0.110000      -0.028347
                                                         0.100000       0.029183
                          1       8    4dyz              2.540273      -2.515135
                                                         1.999996       3.207704
                                                         0.894040       0.583264
                                                         0.439257       0.232819
                                                         0.189498       0.053066
                                                         0.110000      -0.049099
                                                         0.100000       0.050546
                          1       8    4dz2              2.540273      -1.452114
                                                         1.999996       1.851969
                                                         0.894040       0.336748
                                                         0.439257       0.134418
                                                         0.189498       0.030638
                                                         0.110000      -0.028347
                                                         0.100000       0.029183

                          1       9    5dx2              2.540273       1.091564
                                                         1.999996      -1.380594
                                                         0.894040      -0.266409
                                                         0.439257      -0.106871
                                                         0.189498       0.052951
                                                         0.110000      -0.123814
                                                         0.100000       0.120262
                          1       9    5dxy              2.540273       1.890645
                                                         1.999996      -2.391258
                                                         0.894040      -0.461434
                                                         0.439257      -0.185105
                                                         0.189498       0.091714
                                                         0.110000      -0.214453
                                                         0.100000       0.208300
                          1       9    5dxz              2.540273       1.890645
                                                         1.999996      -2.391258
                                                         0.894040      -0.461434
                                                         0.439257      -0.185105
                                                         0.189498       0.091714
                                                         0.110000      -0.214453
                                                         0.100000       0.208300
                          1       9    5dy2              2.540273       1.091564
                                                         1.999996      -1.380594
                                                         0.894040      -0.266409
                                                         0.439257      -0.106871
                                                         0.189498       0.052951
                                                         0.110000      -0.123814
                                                         0.100000       0.120262
                          1       9    5dyz              2.540273       1.890645
                                                         1.999996      -2.391258
                                                         0.894040      -0.461434
                                                         0.439257      -0.185105
                                                         0.189498       0.091714
                                                         0.110000      -0.214453
                                                         0.100000       0.208300
                          1       9    5dz2              2.540273       1.091564
                                                         1.999996      -1.380594
                                                         0.894040      -0.266409
                                                         0.439257      -0.106871
                                                         0.189498       0.052951
                                                         0.110000      -0.123814
                                                         0.100000       0.120262

                          1      10    6dx2              2.540273       0.186639
                                                         1.999996       0.227829
                                                         0.894040       1.446911
                                                         0.439257      -0.212124
                                                         0.189498      -0.009110
                                                         0.110000      -0.056981
                                                         0.100000       0.033278
                          1      10    6dxy              2.540273       0.323269
                                                         1.999996       0.394612
                                                         0.894040       2.506124
                                                         0.439257      -0.367409
                                                         0.189498      -0.015779
                                                         0.110000      -0.098694
                                                         0.100000       0.057640
                          1      10    6dxz              2.540273       0.323269
                                                         1.999996       0.394612
                                                         0.894040       2.506124
                                                         0.439257      -0.367409
                                                         0.189498      -0.015779
                                                         0.110000      -0.098694
                                                         0.100000       0.057640
                          1      10    6dy2              2.540273       0.186639
                                                         1.999996       0.227829
                                                         0.894040       1.446911
                                                         0.439257      -0.212124
                                                         0.189498      -0.009110
                                                         0.110000      -0.056981
                                                         0.100000       0.033278
                          1      10    6dyz              2.540273       0.323269
                                                         1.999996       0.394612
                                                         0.894040       2.506124
                                                         0.439257      -0.367409
                                                         0.189498      -0.015779
                                                         0.110000      -0.098694
                                                         0.100000       0.057640
                          1      10    6dz2              2.540273       0.186639
                                                         1.999996       0.227829
                                                         0.894040       1.446911
                                                         0.439257      -0.212124
                                                         0.189498      -0.009110
                                                         0.110000      -0.056981
                                                         0.100000       0.033278

                          1      11    5fx3              2.540273       0.802599
                                                         1.999996      -0.728191
                                                         0.894040      -0.320471
                                                         0.439257      -0.113251
                                                         0.189498      -0.010396
                                                         0.110000       0.004443
                                                         0.100000      -0.004689
                          1      11    5fx2y             2.540273       1.794666
                                                         1.999996      -1.628284
                                                         0.894040      -0.716595
                                                         0.439257      -0.253237
                                                         0.189498      -0.023245
                                                         0.110000       0.009935
                                                         0.100000      -0.010486
                          1      11    5fx2z             2.540273       1.794666
                                                         1.999996      -1.628284
                                                         0.894040      -0.716595
                                                         0.439257      -0.253237
                                                         0.189498      -0.023245
                                                         0.110000       0.009935
                                                         0.100000      -0.010486
                          1      11    5fxy2             2.540273       1.794666
                                                         1.999996      -1.628284
                                                         0.894040      -0.716595
                                                         0.439257      -0.253237
                                                         0.189498      -0.023245
                                                         0.110000       0.009935
                                                         0.100000      -0.010486
                          1      11    5fxyz             2.540273       3.108453
                                                         1.999996      -2.820270
                                                         0.894040      -1.241179
                                                         0.439257      -0.438619
                                                         0.189498      -0.040262
                                                         0.110000       0.017207
                                                         0.100000      -0.018162
                          1      11    5fxz2             2.540273       1.794666
                                                         1.999996      -1.628284
                                                         0.894040      -0.716595
                                                         0.439257      -0.253237
                                                         0.189498      -0.023245
                                                         0.110000       0.009935
                                                         0.100000      -0.010486
                          1      11    5fy3              2.540273       0.802599
                                                         1.999996      -0.728191
                                                         0.894040      -0.320471
                                                         0.439257      -0.113251
                                                         0.189498      -0.010396
                                                         0.110000       0.004443
                                                         0.100000      -0.004689
                          1      11    5fy2z             2.540273       1.794666
                                                         1.999996      -1.628284
                                                         0.894040      -0.716595
                                                         0.439257      -0.253237
                                                         0.189498      -0.023245
                                                         0.110000       0.009935
                                                         0.100000      -0.010486
                          1      11    5fyz2             2.540273       1.794666
                                                         1.999996      -1.628284
                                                         0.894040      -0.716595
                                                         0.439257      -0.253237
                                                         0.189498      -0.023245
                                                         0.110000       0.009935
                                                         0.100000      -0.010486
                          1      11    5fz3              2.540273       0.802599
                                                         1.999996      -0.728191
                                                         0.894040      -0.320471
                                                         0.439257      -0.113251
                                                         0.189498      -0.010396
                                                         0.110000       0.004443
                                                         0.100000      -0.004689

     RI Auxiliary Basis Set                                                   RI

       Number of orbital shell sets:                                          17
       Number of orbital shells:                                              17
       Number of primitive Cartesian functions:                               17
       Number of Cartesian basis functions:                                   91
       Number of spherical basis functions:                                   69
       Norm type:                                                              2

       Normalised Cartesian orbitals:

                        Set   Shell   Orbital            Exponent    Coefficient

                          1       1    1s                0.210000       0.221093

                          2       1    1px               0.210000       0.202635
                          2       1    1py               0.210000       0.202635
                          2       1    1pz               0.210000       0.202635

                          3       1    1dx2              0.346956       0.258160
                          3       1    1dxy              0.346956       0.447147
                          3       1    1dxz              0.346956       0.447147
                          3       1    1dy2              0.346956       0.258160
                          3       1    1dyz              0.346956       0.447147
                          3       1    1dz2              0.346956       0.258160

                          4       1    1s                0.360392       0.331506

                          5       1    1fx3              0.410523       0.198593
                          5       1    1fx2y             0.410523       0.444066
                          5       1    1fx2z             0.410523       0.444066
                          5       1    1fxy2             0.410523       0.444066
                          5       1    1fxyz             0.410523       0.769146
                          5       1    1fxz2             0.410523       0.444066
                          5       1    1fy3              0.410523       0.198593
                          5       1    1fy2z             0.410523       0.444066
                          5       1    1fyz2             0.410523       0.444066
                          5       1    1fz3              0.410523       0.198593

                          6       1    1px               0.498778       0.597481
                          6       1    1py               0.498778       0.597481
                          6       1    1pz               0.498778       0.597481

                          7       1    1gx4              0.570000       0.237187
                          7       1    1gx3y             0.570000       0.627538
                          7       1    1gx3z             0.570000       0.627538
                          7       1    1gx2y2            0.570000       0.810149
                          7       1    1gx2yz            0.570000       1.403218
                          7       1    1gx2z2            0.570000       0.810149
                          7       1    1gxy3             0.570000       0.627538
                          7       1    1gxy2z            0.570000       1.403218
                          7       1    1gxyz2            0.570000       1.403218
                          7       1    1gxz3             0.570000       0.627538
                          7       1    1gy4              0.570000       0.237187
                          7       1    1gy3z             0.570000       0.627538
                          7       1    1gy2z2            0.570000       0.810149
                          7       1    1gyz3             0.570000       0.627538
                          7       1    1gz4              0.570000       0.237187

                          8       1    1dx2              0.576698       0.628158
                          8       1    1dxy              0.576698       1.088002
                          8       1    1dxz              0.576698       1.088002
                          8       1    1dy2              0.576698       0.628158
                          8       1    1dyz              0.576698       1.088002
                          8       1    1dz2              0.576698       0.628158

                          9       1    1s                0.619083       0.497418

                         10       1    1s                1.092167       0.761424

                         11       1    1fx3              1.103628       1.837832
                         11       1    1fx2y             1.103628       4.109516
                         11       1    1fx2z             1.103628       4.109516
                         11       1    1fxy2             1.103628       4.109516
                         11       1    1fxyz             1.103628       7.117891
                         11       1    1fxz2             1.103628       4.109516
                         11       1    1fy3              1.103628       1.837832
                         11       1    1fy2z             1.103628       4.109516
                         11       1    1fyz2             1.103628       4.109516
                         11       1    1fz3              1.103628       1.837832

                         12       1    1px               1.390701       2.152694
                         12       1    1py               1.390701       2.152694
                         12       1    1pz               1.390701       2.152694

                         13       1    1dx2              1.439171       3.112475
                         13       1    1dxy              1.439171       5.390965
                         13       1    1dxz              1.439171       5.390965
                         13       1    1dy2              1.439171       3.112475
                         13       1    1dyz              1.439171       5.390965
                         13       1    1dz2              1.439171       3.112475

                         14       1    1gx4              1.615953       4.164995
                         14       1    1gx3y             1.615953      11.019542
                         14       1    1gx3z             1.615953      11.019542
                         14       1    1gx2y2            1.615953      14.226167
                         14       1    1gx2yz            1.615953      24.640444
                         14       1    1gx2z2            1.615953      14.226167
                         14       1    1gxy3             1.615953      11.019542
                         14       1    1gxy2z            1.615953      24.640444
                         14       1    1gxyz2            1.615953      24.640444
                         14       1    1gxz3             1.615953      11.019542
                         14       1    1gy4              1.615953       4.164995
                         14       1    1gy3z             1.615953      11.019542
                         14       1    1gy2z2            1.615953      14.226167
                         14       1    1gyz3             1.615953      11.019542
                         14       1    1gz4              1.615953       4.164995

                         15       1    1px               2.100661       3.604831
                         15       1    1py               2.100661       3.604831
                         15       1    1pz               2.100661       3.604831

                         16       1    1s                2.197983       1.286555

                         17       1    1dx2              2.302596       7.084198
                         17       1    1dxy              2.302596      12.270190
                         17       1    1dxz              2.302596      12.270190
                         17       1    1dy2              2.302596       7.084198
                         17       1    1dyz              2.302596      12.270190
                         17       1    1dz2              2.302596       7.084198

       Atomic covalent radius [Angstrom]:                                  1.300

       Atomic van der Waals radius [Angstrom]:                             1.670

     GTH Potential information for                                  GTH-PADE-q14

       Description:                       Goedecker-Teter-Hutter pseudopotential
                                           Goedecker et al., PRB 54, 1703 (1996)
                                          Hartwigsen et al., PRB 58, 3641 (1998)
                                                      Krack, TCA 114, 145 (2005)

       Gaussian exponent of the core charge distribution:               2.704164
       Electronic configuration (s p d ...):                           3   6   5

       Parameters of the local part of the GTH pseudopotential:

                          rloc        C1          C2          C3          C4
                        0.430000   16.237452    1.496536

       Parameters of the non-local part of the GTH pseudopotential:

                   l      r(l)      h(i,j,l)

                   0    0.376255    3.362426    2.048528
                                    2.048528   -5.289276
                   1    0.361734   -0.379571    1.718923
                                    1.718923   -4.067713
                   2    0.525828   -1.543211   -0.473760
                                   -0.473760    1.074388

  2. Atomic kind: S                                     Number of atoms:      72

     Orbital Basis Set                                  TZVP-MOLOPT-GTH_upscaled

       Number of orbital shell sets:                                           1
       Number of orbital shells:                                               7
       Number of primitive Cartesian functions:                                7
       Number of Cartesian basis functions:                                   18
       Number of spherical basis functions:                                   17
       Norm type:                                                              2

       Normalised Cartesian orbitals:

                        Set   Shell   Orbital            Exponent    Coefficient

                          1       1    2s                3.817591       0.157267
                                                         2.362752      -0.510091
                                                         0.861004      -0.067546
                                                         0.417525       0.341513
                                                         0.181514       0.065074
                                                         0.140000      -0.001073
                                                         0.120000       0.001196

                          1       2    3s                3.817591      -0.191568
                                                         2.362752       0.523701
                                                         0.861004       0.282710
                                                         0.417525      -0.587888
                                                         0.181514       0.178884
                                                         0.140000      -0.487887
                                                         0.120000       0.543819

                          1       3    4s                3.817591      -0.991151
                                                         2.362752       1.865280
                                                         0.861004       0.135387
                                                         0.417525      -0.133451
                                                         0.181514       0.078400
                                                         0.140000       0.363817
                                                         0.120000      -0.405526

                          1       4    3px               3.817591      -0.172566
                                                         2.362752      -0.175790
                                                         0.861004       0.224449
                                                         0.417525       0.286658
                                                         0.181514       0.049751
                                                         0.140000      -0.014459
                                                         0.120000       0.014921
                          1       4    3py               3.817591      -0.172566
                                                         2.362752      -0.175790
                                                         0.861004       0.224449
                                                         0.417525       0.286658
                                                         0.181514       0.049751
                                                         0.140000      -0.014459
                                                         0.120000       0.014921
                          1       4    3pz               3.817591      -0.172566
                                                         2.362752      -0.175790
                                                         0.861004       0.224449
                                                         0.417525       0.286658
                                                         0.181514       0.049751
                                                         0.140000      -0.014459
                                                         0.120000       0.014921

                          1       5    4px               3.817591       0.010507
                                                         2.362752       0.217406
                                                         0.861004      -0.162395
                                                         0.417525      -0.206857
                                                         0.181514       0.107046
                                                         0.140000      -0.281393
                                                         0.120000       0.290385
                          1       5    4py               3.817591       0.010507
                                                         2.362752       0.217406
                                                         0.861004      -0.162395
                                                         0.417525      -0.206857
                                                         0.181514       0.107046
                                                         0.140000      -0.281393
                                                         0.120000       0.290385
                          1       5    4pz               3.817591       0.010507
                                                         2.362752       0.217406
                                                         0.861004      -0.162395
                                                         0.417525      -0.206857
                                                         0.181514       0.107046
                                                         0.140000      -0.281393
                                                         0.120000       0.290385

                          1       6    5px               3.817591      -0.947232
                                                         2.362752       1.731661
                                                         0.861004      -1.484366
                                                         0.417525       0.775915
                                                         0.181514       0.065997
                                                         0.140000       0.307740
                                                         0.120000      -0.317574
                          1       6    5py               3.817591      -0.947232
                                                         2.362752       1.731661
                                                         0.861004      -1.484366
                                                         0.417525       0.775915
                                                         0.181514       0.065997
                                                         0.140000       0.307740
                                                         0.120000      -0.317574
                          1       6    5pz               3.817591      -0.947232
                                                         2.362752       1.731661
                                                         0.861004      -1.484366
                                                         0.417525       0.775915
                                                         0.181514       0.065997
                                                         0.140000       0.307740
                                                         0.120000      -0.317574

                          1       7    4dx2              3.817591       0.133441
                                                         2.362752       0.805146
                                                         0.861004       0.452959
                                                         0.417525       0.174839
                                                         0.181514       0.017641
                                                         0.140000       0.004216
                                                         0.120000      -0.004028
                          1       7    4dxy              3.817591       0.231126
                                                         2.362752       1.394554
                                                         0.861004       0.784547
                                                         0.417525       0.302830
                                                         0.181514       0.030555
                                                         0.140000       0.007302
                                                         0.120000      -0.006976
                          1       7    4dxz              3.817591       0.231126
                                                         2.362752       1.394554
                                                         0.861004       0.784547
                                                         0.417525       0.302830
                                                         0.181514       0.030555
                                                         0.140000       0.007302
                                                         0.120000      -0.006976
                          1       7    4dy2              3.817591       0.133441
                                                         2.362752       0.805146
                                                         0.861004       0.452959
                                                         0.417525       0.174839
                                                         0.181514       0.017641
                                                         0.140000       0.004216
                                                         0.120000      -0.004028
                          1       7    4dyz              3.817591       0.231126
                                                         2.362752       1.394554
                                                         0.861004       0.784547
                                                         0.417525       0.302830
                                                         0.181514       0.030555
                                                         0.140000       0.007302
                                                         0.120000      -0.006976
                          1       7    4dz2              3.817591       0.133441
                                                         2.362752       0.805146
                                                         0.861004       0.452959
                                                         0.417525       0.174839
                                                         0.181514       0.017641
                                                         0.140000       0.004216
                                                         0.120000      -0.004028

     RI Auxiliary Basis Set                                                   RI

       Number of orbital shell sets:                                          12
       Number of orbital shells:                                              12
       Number of primitive Cartesian functions:                               12
       Number of Cartesian basis functions:                                   44
       Number of spherical basis functions:                                   38
       Norm type:                                                              2

       Normalised Cartesian orbitals:

                        Set   Shell   Orbital            Exponent    Coefficient

                          1       1    1s                0.250000       0.251979

                          2       1    1px               0.250000       0.251979
                          2       1    1py               0.250000       0.251979
                          2       1    1pz               0.250000       0.251979

                          3       1    1dx2              0.250000       0.145480
                          3       1    1dxy              0.250000       0.251979
                          3       1    1dxz              0.250000       0.251979
                          3       1    1dy2              0.250000       0.145480
                          3       1    1dyz              0.250000       0.251979
                          3       1    1dz2              0.250000       0.145480

                          4       1    1s                0.389135       0.351144

                          5       1    1dx2              0.603367       0.679871
                          5       1    1dxy              0.603367       1.177572
                          5       1    1dxz              0.603367       1.177572
                          5       1    1dy2              0.603367       0.679871
                          5       1    1dyz              0.603367       1.177572
                          5       1    1dz2              0.603367       0.679871

                          6       1    1px               0.631252       0.802035
                          6       1    1py               0.631252       0.802035
                          6       1    1pz               0.631252       0.802035

                          7       1    1fx3              0.711060       0.683508
                          7       1    1fx2y             0.711060       1.528371
                          7       1    1fx2z             0.711060       1.528371
                          7       1    1fxy2             0.711060       1.528371
                          7       1    1fxyz             0.711060       2.647216
                          7       1    1fxz2             0.711060       1.528371
                          7       1    1fy3              0.711060       0.683508
                          7       1    1fy2z             0.711060       1.528371
                          7       1    1fyz2             0.711060       1.528371
                          7       1    1fz3              0.711060       0.683508

                          8       1    1s                0.936032       0.678232

                          9       1    1dx2              1.115385       1.992520
                          9       1    1dxy              1.115385       3.451146
                          9       1    1dxz              1.115385       3.451146
                          9       1    1dy2              1.115385       1.992520
                          9       1    1dyz              1.115385       3.451146
                          9       1    1dz2              1.115385       1.992520

                         10       1    1px               1.173306       1.740620
                         10       1    1py               1.173306       1.740620
                         10       1    1pz               1.173306       1.740620

                         11       1    1s                2.064006       1.227279

                         12       1    1px               2.625789       4.764474
                         12       1    1py               2.625789       4.764474
                         12       1    1pz               2.625789       4.764474

       Atomic covalent radius [Angstrom]:                                  1.020

       Atomic van der Waals radius [Angstrom]:                             1.800

     GTH Potential information for                                   GTH-PADE-q6

       Description:                       Goedecker-Teter-Hutter pseudopotential
                                           Goedecker et al., PRB 54, 1703 (1996)
                                          Hartwigsen et al., PRB 58, 3641 (1998)
                                                      Krack, TCA 114, 145 (2005)

       Gaussian exponent of the core charge distribution:               2.834467
       Electronic configuration (s p d ...):                               2   4

       Parameters of the local part of the GTH pseudopotential:

                          rloc        C1          C2          C3          C4
                        0.420000   -6.554492

       Parameters of the non-local part of the GTH pseudopotential:

                   l      r(l)      h(i,j,l)

                   0    0.361757    7.905303   -1.731881
                                   -1.731881    4.471698
                   1    0.405285    3.866579


 MOLECULE KIND INFORMATION


 All atoms are their own molecule, skipping detailed information


 TOTAL NUMBERS AND MAXIMUM NUMBERS

  Total number of            - Atomic kinds:                                   2
                             - Atoms:                                        108
                             - Shell sets:                                   108
                             - Shells:                                       900
                             - Primitive Cartesian functions:                756
                             - Cartesian basis functions:                   2772
                             - Spherical basis functions:                   2484

  Maximum angular momentum of- Orbital basis functions:                        3
                             - Local part of the GTH pseudopotential:          2
                             - Non-local part of the GTH pseudopotential:      4


 MODULE QUICKSTEP: ATOMIC COORDINATES IN ANGSTROM

   Atom Kind Element         X             Y             Z       Z(eff)     Mass
      1    1 Mo   42      0.000000      1.818650      3.075000  14.0000  95.9600
      2    2 S    16      0.000000      3.637310      1.488300   6.0000  32.0650
      3    2 S    16      0.000000      3.637310      4.661700   6.0000  32.0650
      4    1 Mo   42      3.150000      1.818650      3.075000  14.0000  95.9600
      5    2 S    16      3.150000      3.637310      1.488300   6.0000  32.0650
      6    2 S    16      3.150000      3.637310      4.661700   6.0000  32.0650
      7    1 Mo   42      6.300000      1.818650      3.075000  14.0000  95.9600
      8    2 S    16      6.300000      3.637310      1.488300   6.0000  32.0650
      9    2 S    16      6.300000      3.637310      4.661700   6.0000  32.0650
     10    1 Mo   42      9.450000      1.818650      3.075000  14.0000  95.9600
     11    2 S    16      9.450000      3.637310      1.488300   6.0000  32.0650
     12    2 S    16      9.450000      3.637310      4.661700   6.0000  32.0650
     13    1 Mo   42     12.600000      1.818650      3.075000  14.0000  95.9600
     14    2 S    16     12.600000      3.637310      1.488300   6.0000  32.0650
     15    2 S    16     12.600000      3.637310      4.661700   6.0000  32.0650
     16    1 Mo   42     15.750000      1.818650      3.075000  14.0000  95.9600
     17    2 S    16     15.750000      3.637310      1.488300   6.0000  32.0650
     18    2 S    16     15.750000      3.637310      4.661700   6.0000  32.0650
     19    1 Mo   42     -1.575000      4.546630      3.075000  14.0000  95.9600
     20    2 S    16     -1.575000      6.365290      1.488300   6.0000  32.0650
     21    2 S    16     -1.575000      6.365290      4.661700   6.0000  32.0650
     22    1 Mo   42      1.575000      4.546630      3.075000  14.0000  95.9600
     23    2 S    16      1.575000      6.365290      1.488300   6.0000  32.0650
     24    2 S    16      1.575000      6.365290      4.661700   6.0000  32.0650
     25    1 Mo   42      4.725000      4.546630      3.075000  14.0000  95.9600
     26    2 S    16      4.725000      6.365290      1.488300   6.0000  32.0650
     27    2 S    16      4.725000      6.365290      4.661700   6.0000  32.0650
     28    1 Mo   42      7.875000      4.546630      3.075000  14.0000  95.9600
     29    2 S    16      7.875000      6.365290      1.488300   6.0000  32.0650
     30    2 S    16      7.875000      6.365290      4.661700   6.0000  32.0650
     31    1 Mo   42     11.025000      4.546630      3.075000  14.0000  95.9600
     32    2 S    16     11.025000      6.365290      1.488300   6.0000  32.0650
     33    2 S    16     11.025000      6.365290      4.661700   6.0000  32.0650
     34    1 Mo   42     14.175000      4.546630      3.075000  14.0000  95.9600
     35    2 S    16     14.175000      6.365290      1.488300   6.0000  32.0650
     36    2 S    16     14.175000      6.365290      4.661700   6.0000  32.0650
     37    1 Mo   42     -3.150000      7.274610      3.075000  14.0000  95.9600
     38    2 S    16     -3.150000      9.093270      1.488300   6.0000  32.0650
     39    2 S    16     -3.150000      9.093270      4.661700   6.0000  32.0650
     40    1 Mo   42      0.000000      7.274610      3.075000  14.0000  95.9600
     41    2 S    16      0.000000      9.093270      1.488300   6.0000  32.0650
     42    2 S    16      0.000000      9.093270      4.661700   6.0000  32.0650
     43    1 Mo   42      3.150000      7.274610      3.075000  14.0000  95.9600
     44    2 S    16      3.150000      9.093270      1.488300   6.0000  32.0650
     45    2 S    16      3.150000      9.093270      4.661700   6.0000  32.0650
     46    1 Mo   42      6.300000      7.274610      3.075000  14.0000  95.9600
     47    2 S    16      6.300000      9.093270      1.488300   6.0000  32.0650
     48    2 S    16      6.300000      9.093270      4.661700   6.0000  32.0650
     49    1 Mo   42      9.450000      7.274610      3.075000  14.0000  95.9600
     50    2 S    16      9.450000      9.093270      1.488300   6.0000  32.0650
     51    2 S    16      9.450000      9.093270      4.661700   6.0000  32.0650
     52    1 Mo   42     12.600000      7.274610      3.075000  14.0000  95.9600
     53    2 S    16     12.600000      9.093270      1.488300   6.0000  32.0650
     54    2 S    16     12.600000      9.093270      4.661700   6.0000  32.0650
     55    1 Mo   42     -4.725000     10.002590      3.075000  14.0000  95.9600
     56    2 S    16     -4.725000     11.821250      1.488300   6.0000  32.0650
     57    2 S    16     -4.725000     11.821250      4.661700   6.0000  32.0650
     58    1 Mo   42     -1.575000     10.002590      3.075000  14.0000  95.9600
     59    2 S    16     -1.575000     11.821250      1.488300   6.0000  32.0650
     60    2 S    16     -1.575000     11.821250      4.661700   6.0000  32.0650
     61    1 Mo   42      1.575000     10.002590      3.075000  14.0000  95.9600
     62    2 S    16      1.575000     11.821250      1.488300   6.0000  32.0650
     63    2 S    16      1.575000     11.821250      4.661700   6.0000  32.0650
     64    1 Mo   42      4.725000     10.002590      3.075000  14.0000  95.9600
     65    2 S    16      4.725000     11.821250      1.488300   6.0000  32.0650
     66    2 S    16      4.725000     11.821250      4.661700   6.0000  32.0650
     67    1 Mo   42      7.875000     10.002590      3.075000  14.0000  95.9600
     68    2 S    16      7.875000     11.821250      1.488300   6.0000  32.0650
     69    2 S    16      7.875000     11.821250      4.661700   6.0000  32.0650
     70    1 Mo   42     11.025000     10.002590      3.075000  14.0000  95.9600
     71    2 S    16     11.025000     11.821250      1.488300   6.0000  32.0650
     72    2 S    16     11.025000     11.821250      4.661700   6.0000  32.0650
     73    1 Mo   42     -6.300000     12.730570      3.075000  14.0000  95.9600
     74    2 S    16     -6.300000     14.549230      1.488300   6.0000  32.0650
     75    2 S    16     -6.300000     14.549230      4.661700   6.0000  32.0650
     76    1 Mo   42     -3.150000     12.730570      3.075000  14.0000  95.9600
     77    2 S    16     -3.150000     14.549230      1.488300   6.0000  32.0650
     78    2 S    16     -3.150000     14.549230      4.661700   6.0000  32.0650
     79    1 Mo   42      0.000000     12.730570      3.075000  14.0000  95.9600
     80    2 S    16      0.000000     14.549230      1.488300   6.0000  32.0650
     81    2 S    16      0.000000     14.549230      4.661700   6.0000  32.0650
     82    1 Mo   42      3.150000     12.730570      3.075000  14.0000  95.9600
     83    2 S    16      3.150000     14.549230      1.488300   6.0000  32.0650
     84    2 S    16      3.150000     14.549230      4.661700   6.0000  32.0650
     85    1 Mo   42      6.300000     12.730570      3.075000  14.0000  95.9600
     86    2 S    16      6.300000     14.549230      1.488300   6.0000  32.0650
     87    2 S    16      6.300000     14.549230      4.661700   6.0000  32.0650
     88    1 Mo   42      9.450000     12.730570      3.075000  14.0000  95.9600
     89    2 S    16      9.450000     14.549230      1.488300   6.0000  32.0650
     90    2 S    16      9.450000     14.549230      4.661700   6.0000  32.0650
     91    1 Mo   42     -7.875000     15.458550      3.075000  14.0000  95.9600
     92    2 S    16     -7.875000     17.277210      1.488300   6.0000  32.0650
     93    2 S    16     -7.875000     17.277210      4.661700   6.0000  32.0650
     94    1 Mo   42     -4.725000     15.458550      3.075000  14.0000  95.9600
     95    2 S    16     -4.725000     17.277210      1.488300   6.0000  32.0650
     96    2 S    16     -4.725000     17.277210      4.661700   6.0000  32.0650
     97    1 Mo   42     -1.575000     15.458550      3.075000  14.0000  95.9600
     98    2 S    16     -1.575000     17.277210      1.488300   6.0000  32.0650
     99    2 S    16     -1.575000     17.277210      4.661700   6.0000  32.0650
    100    1 Mo   42      1.575000     15.458550      3.075000  14.0000  95.9600
    101    2 S    16      1.575000     17.277210      1.488300   6.0000  32.0650
    102    2 S    16      1.575000     17.277210      4.661700   6.0000  32.0650
    103    1 Mo   42      4.725000     15.458550      3.075000  14.0000  95.9600
    104    2 S    16      4.725000     17.277210      1.488300   6.0000  32.0650
    105    2 S    16      4.725000     17.277210      4.661700   6.0000  32.0650
    106    1 Mo   42      7.875000     15.458550      3.075000  14.0000  95.9600
    107    2 S    16      7.875000     17.277210      1.488300   6.0000  32.0650
    108    2 S    16      7.875000     17.277210      4.661700   6.0000  32.0650



 SCF PARAMETERS         Density guess:                                   RESTART
                        --------------------------------------------------------
                        max_scf:                                             100
                        max_scf_history:                                       0
                        max_diis:                                              4
                        --------------------------------------------------------
                        eps_scf:                                        1.00E-09
                        eps_scf_history:                                0.00E+00
                        eps_diis:                                       1.00E-01
                        eps_eigval:                                     1.00E-05
                        --------------------------------------------------------
                        level_shift [a.u.]:                             0.000000
                        added MOs                                      2016    0
                        --------------------------------------------------------
                        Mixing method:                            BROYDEN_MIXING
                                                charge density mixing in g-space
                        --------------------------------------------------------
                        No outer SCF

 PW_GRID| Information for grid number                                          1
 PW_GRID| Grid distributed over                                   512 processors
 PW_GRID| Real space group dimensions                                    16   32
 PW_GRID| the grid is blocked:                                               YES
 PW_GRID| Cutoff [a.u.]                                                    250.0
 PW_GRID| spherical cutoff:                                                   NO
 PW_GRID|   Bounds   1           -128     127                Points:         256
 PW_GRID|   Bounds   2           -128     127                Points:         256
 PW_GRID|   Bounds   3           -108     107                Points:         216
 PW_GRID| Volume element (a.u.^3)  0.2212E-02     Volume (a.u.^3)     31314.2566
 PW_GRID| Grid span                                                    FULLSPACE
 PW_GRID|   Distribution                         Average         Max         Min
 PW_GRID|   G-Vectors                            27648.0       28672       24576
 PW_GRID|   G-Rays                                 108.0         112          96
 PW_GRID|   Real Space Points                    27648.0       28672       24576

 PW_GRID| Information for grid number                                          2
 PW_GRID| Number of the reference grid                                         1
 PW_GRID| Grid distributed over                                   512 processors
 PW_GRID| Real space group dimensions                                    16   32
 PW_GRID| the grid is blocked:                                                NO
 PW_GRID| Cutoff [a.u.]                                                     83.3
 PW_GRID| spherical cutoff:                                                   NO
 PW_GRID|   Bounds   1            -75      74                Points:         150
 PW_GRID|   Bounds   2            -75      74                Points:         150
 PW_GRID|   Bounds   3            -60      59                Points:         120
 PW_GRID| Volume element (a.u.^3)  0.1160E-01     Volume (a.u.^3)     31314.2566
 PW_GRID| Grid span                                                    FULLSPACE
 PW_GRID|   Distribution                         Average         Max         Min
 PW_GRID|   G-Vectors                             5273.4       16800           0
 PW_GRID|   G-Rays                                  35.2         112           0
 PW_GRID|   Real Space Points                     5273.4        6000        4320

 PW_GRID| Information for grid number                                          3
 PW_GRID| Number of the reference grid                                         1
 PW_GRID| Grid distributed over                                   512 processors
 PW_GRID| Real space group dimensions                                    16   32
[...]
 flops    35 x    35 x    84           7538454000       0.0%    100.0%      0.0%
 flops    17 x    17 x    64          96242826240       0.0%    100.0%      0.0%
 flops    35 x    17 x    64          97716326400       0.0%    100.0%      0.0%
 flops    17 x    35 x    64          97716326400       0.0%    100.0%      0.0%
 flops    35 x    35 x    64         103384512000       0.0%    100.0%      0.0%
 flops    17 x    17 x    96         104263061760       0.0%    100.0%      0.0%
 flops    35 x    17 x    96         105859353600       0.0%    100.0%      0.0%
 flops    17 x    35 x    96         105859353600       0.0%    100.0%      0.0%
 flops    35 x    35 x    96         111999888000       0.0%    100.0%      0.0%
 flops inhomo. stacks                 14739618816     100.0%      0.0%      0.0%
 flops total                       894.412405E+09       1.6%     98.4%      0.0%
 flops max/rank                      3.376619E+09       1.8%     98.2%      0.0%
 matmuls inhomo. stacks                     11904     100.0%      0.0%      0.0%
 matmuls total                           10628704       0.1%     99.9%      0.0%
 number of processed stacks               6138358       0.2%     99.8%      0.0%
 average stack size                                     1.0       1.7       0.0
 marketing flops                   327.517176E+09
 -------------------------------------------------------------------------------
 # multiplications                             57
 max memory usage/rank             547.876864E+06
 # max total images/rank                        2
 # max 3D layers                                1
 # MPI messages exchanged                 1780224
 MPI messages size (bytes):
  total size                       128.810271E+09
  min size                           0.000000E+00
  max size                         143.104000E+03
  average size                      72.356219E+03
 MPI breakdown and total messages size (bytes):
             size <=      128                7680                        0
       128 < size <=     8192                 135                   936360
      8192 < size <=    32768                7545                120513720
     32768 < size <=   131072             1698183             119878473312
    131072 < size <=  4194304               66681               8810340864
   4194304 < size <= 16777216                   0                        0
  16777216 < size                               0                        0
 -------------------------------------------------------------------------------

 *** WARNING in dbcsr_mm.F:291 :: Using a non-square number of MPI ranks ***
 *** might lead to poor performance. Used ranks: 512 Suggested: 529 1024 ***

 -------------------------------------------------------------------------------
 -                                                                             -
 -                      DBCSR MESSAGE PASSING PERFORMANCE                      -
 -                                                                             -
 -------------------------------------------------------------------------------
 ROUTINE             CALLS      AVE VOLUME [Bytes]
 MP_Bcast              102                     12.
 MP_Allreduce          615                     14.
 MP_Alltoall        100543                 717744.
 MP_ISend             7296                  39076.
 MP_IRecv             7296                  38404.
 -------------------------------------------------------------------------------

 -------------------------------------------------------------------------------
 -                                                                             -
 -                                DBM STATISTICS                               -
 -                                                                             -
 -------------------------------------------------------------------------------
    M  x    N  x    K                                          COUNT     PERCENT
   ??  x   ??  x   ??                                      904589797       0.87%
    ?  x   ??  x >999                                      546744003       0.53%
   ??  x    ?  x >999                                      540592042       0.52%
   ??  x >999  x    ?                                      479087640       0.46%
  ???  x   ??  x   ??                                    13355548490      12.91%
    ?  x  ???  x    ?                                    13148640296      12.71%
   ??  x   ??  x >999                                      110721862       0.11%
   ??  x >999  x   ??                                       96912288       0.09%
    ?  x    ?  x    ?                                    30087984331      29.07%
   ??  x   ??  x  ???                                    12167296013      11.76%
    ?  x   ??  x  ???                                     3026444273       2.92%
   ??  x    ?  x  ???                                     2980388040       2.88%
    ?  x  ???  x   ??                                     2675281994       2.59%
    ?  x    ?  x >999                                     2667965465       2.58%
   ??  x  ???  x    ?                                     2630157280       2.54%
    ?  x >999  x    ?                                     2395063820       2.31%
    ?  x    ?  x  ???                                    14653589960      14.16%
   ??  x  ???  x   ??                                      535113216       0.52%
    ?  x >999  x   ??                                      484502808       0.47%
 -------------------------------------------------------------------------------

 -------------------------------------------------------------------------------
 -                                                                             -
 -                                GRID STATISTICS                              -
 -                                                                             -
 -------------------------------------------------------------------------------
 LP    KERNEL             BACKEND                              COUNT     PERCENT
 5     collocate general  CPU                                5685120      22.94%
 5     integrate general  CPU                                5685120      22.94%
 4     collocate general  CPU                                4993632      20.15%
 4     integrate general  CPU                                4993632      20.15%
 6     collocate general  CPU                                1628928       6.57%
 6     integrate general  CPU                                1628928       6.57%
 0     collocate general  CPU                                 110592       0.45%
 0     integrate general  CPU                                  55296       0.22%
 -------------------------------------------------------------------------------

 MEMORY| Estimated peak process memory [MiB]                                2345

 -------------------------------------------------------------------------------
 ----                             MULTIGRID INFO                            ----
 -------------------------------------------------------------------------------
 count for grid        1:       16758952          cutoff [a.u.]          250.00
 count for grid        2:        8281164          cutoff [a.u.]           83.33
 count for grid        3:        8028928          cutoff [a.u.]           27.78
 count for grid        4:          88064          cutoff [a.u.]            9.26
 total gridlevel count  :       33157108

 -------------------------------------------------------------------------------
 -                                                                             -
 -                         MESSAGE PASSING PERFORMANCE                         -
 -                                                                             -
 -------------------------------------------------------------------------------

 ROUTINE             CALLS      AVE VOLUME [Bytes]
 MP_Group             5955
 MP_Bcast             7688                  23208.
 MP_Allreduce        12268                   7560.
 MP_Sync              9390
 MP_Alltoall          4839
 MP_SendRecv         85848                  20309.
 MP_ISendRecv        85848                  20309.
 MP_Wait             98204
 MP_comm_split        3474
 MP_ISend           247465                 193106.
 MP_IRecv           273163                 179959.
 -------------------------------------------------------------------------------


 -------------------------------------------------------------------------------
 -                                                                             -
 -                           R E F E R E N C E S                               -
 -                                                                             -
 -------------------------------------------------------------------------------
 
 CP2K version 2023.2 (Development Version), the CP2K developers group (2023).
 CP2K is freely available from https://www.cp2k.org/ .

 Kuehne,Thomas D.; Iannuzzi,Marcella; Del Ben,Mauro;
 Rybkin,Vladimir V.; Seewald,Patrick; Stein,Frederick; Laino,Teodoro;
 Khaliullin,Rustam Z.; Schuett,Ole; Schiffmann,Florian; Golze,Dorothea;
 Wilhelm,Jan; Chulkov,Sergey; Bani-Hashemian,Mohammad Hossein;
 Weber,Valery; Borstnik,Urban; Taillefumier,Mathieu;
 Jakobovits,Alice Shoshana; Lazzaro,Alfio; Pabst,Hans; Mueller,Tiziano;
 Schade,Robert; Guidon,Manuel; Andermatt,Samuel; Holmberg,Nico;
 Schenter,Gregory K.; Hehn,Anna; Bussy,Augustin; Belleflamme,Fabian;
 Tabacchi,Gloria; Gloess,Andreas; Lass,Michael; Bethune,Iain;
 Mundy,Christopher J.; Plessl,Christian; Watkins,Matt;
 VandeVondele,Joost; Krack,Matthias; Hutter,Juerg. 
 The Journal of Chemical Physics, 152 (19), (2020). 
 CP2K: An electronic structure and molecular dynamics software package -
 Quickstep: Efficient and accurate electronic structure calculations.
 https://doi.org/10.1063/5.0007045

 Wilhelm, J; Golze, D; Talirz, L; Hutter, J; Pignedoli, CA. 
 JOURNAL OF PHYSICAL CHEMISTRY LETTERS, 9, 306-312 (2018). 
 Toward GW calculations on thousands of atoms.
 https://doi.org/10.1021/acs.jpclett.7b02740

 Wilhelm, J; Hutter, J. PHYSICAL REVIEW B, 95, 235123 (2017). 
 Periodic GW calculations in the Gaussian and plane-waves scheme.
 https://doi.org/10.1103/PhysRevB.95.235123

 Wilhelm, J; Del Ben, M; Hutter, J. 
 JOURNAL OF CHEMICAL THEORY AND COMPUTATION, 12, 3623-3635 (2016). 
 GW in the Gaussian and plane waves scheme with application to linear acenes.
 https://doi.org/10.1021/acs.jctc.6b00380

 Wilhelm, J; Seewald, P; Del Ben, M; Hutter, J. 
 JOURNAL OF CHEMICAL THEORY AND COMPUTATION, 12, 5851-5859 (2016). 
 Large-Scale Cubic-Scaling Random Phase Approximation Correlation.
 https://doi.org/10.1021/acs.jctc.6b00840

 Schuett, Ole; Messmer, Peter; Hutter, Juerg; VandeVondele, Joost. 
 Electronic Structure Calculations on Graphics Processing Units, John
 Wiley & Sons, Ltd, 173-190 (2016). 
 GPU-Accelerated Sparse Matrix-Matrix Multiplication for
 Linear Scaling Density Functional Theory.
 https://doi.org/10.1002/9781118670712.ch8

 Heinecke, A; Henry, G; Hutchinson, M; Pabst, H. 
 Proceedings of Intl. Supercomputing Conference, 981-991 (2016). 
 LIBXSMM: Accelerating Small Matrix Multiplications
 by Runtime Code Generation.
 https://doi.org/10.1109/SC.2016.83

 Del Ben, M; Schuett, O; Wentz, T; Messmer, P; Hutter, J;
 VandeVondele, J. 
 COMPUTER PHYSICS COMMUNICATIONS, 187, 120-129 (2015). 
 Enabling simulation at the fifth rung of DFT: Large scale RPA
 calculations with excellent time to solution.
 https://doi.org/10.1016/j.cpc.2014.10.021

 Borstnik, U; VandeVondele, J; Weber, V; Hutter, J. 
 PARALLEL COMPUTING, 40 (5-6), 47-58 (2014). 
 Sparse matrix multiplication: The distributed block-compressed sparse
 row library.
 https://doi.org/10.1016/j.parco.2014.03.012

 Hutter, J; Iannuzzi, M; Schiffmann, F; VandeVondele, J. 
 WIREs Comput Mol Sci., 4 (1), 15-25 (2014). 
 CP2K: atomistic simulations of condensed matter systems.
 https://doi.org/10.1002/wcms.1159

 Marek, A; Blum, V; Johanni, R; Havu, V; Lang, B; Auckenthaler, T;
 Heinecke, A; Bungartz, H; Lederer, H. 
 Journal of Physics: Condensed Matter, 26 (21), (2014). 
 The ELPA library: scalable parallel eigenvalue solutions for
 electronic structure
 theory and computational science.
 https://doi.org/10.1088/0953-8984/26/21/213201

 Del Ben, M; Hutter, J; VandeVondele, J. 
 JOURNAL OF CHEMICAL THEORY AND COMPUTATION, 9 (6), 2654-2671 (2013). 
 Electron Correlation in the Condensed Phase from a Resolution of
 Identity Approach Based on the Gaussian and Plane Waves Scheme.
 https://doi.org/10.1021/ct4002202

 Del Ben, M; Hutter, J; VandeVondele, J. 
 JOURNAL OF CHEMICAL THEORY AND COMPUTATION, 8 (11), 4177-4188 (2012). 
 Second-Order Moller-Plesset Perturbation Theory in the Condensed Phase:
 An Efficient and Massively Parallel Gaussian and Plane Waves Approach.
 https://doi.org/10.1021/ct300531w

 VandeVondele, J; Hutter, J. 
 JOURNAL OF CHEMICAL PHYSICS, 127 (11), 114105 (2007). 
 Gaussian basis sets for accurate calculations on molecular systems in
 gas and condensed phases.
 https://doi.org/10.1063/1.2770708

 Krack, M. 
 THEORETICAL CHEMISTRY ACCOUNTS, 114 (1-3), 145-152 (2005). 
 Pseudopotentials for H to Kr optimized for gradient-corrected
 exchange-correlation functionals.
 https://doi.org/10.1007/s00214-005-0655-y

 VandeVondele, J; Krack, M; Mohamed, F; Parrinello, M; Chassaing, T;
 Hutter, J. COMPUTER PHYSICS COMMUNICATIONS, 167 (2), 103-128 (2005). 
 QUICKSTEP: Fast and accurate density functional calculations using a
 mixed Gaussian and plane waves approach.
 https://doi.org/10.1016/j.cpc.2004.12.014

 Frigo, M; Johnson, SG. 
 PROCEEDINGS OF THE IEEE, 93 (2), 216-231 (2005). 
 The design and implementation of FFTW3.
 https://doi.org/10.1109/JPROC.2004.840301

 Hartwigsen, C; Goedecker, S; Hutter, J. 
 PHYSICAL REVIEW B, 58 (7), 3641-3662 (1998). 
 Relativistic separable dual-space Gaussian pseudopotentials from H to Rn.
 https://doi.org/10.1103/PhysRevB.58.3641

 Lippert, G; Hutter, J; Parrinello, M. 
 MOLECULAR PHYSICS, 92 (3), 477-487 (1997). 
 A hybrid Gaussian and plane wave density functional scheme.
 https://doi.org/10.1080/002689797170220

 Goedecker, S; Teter, M; Hutter, J. 
 PHYSICAL REVIEW B, 54 (3), 1703-1710 (1996). 
 Separable dual-space Gaussian pseudopotentials.
 https://doi.org/10.1103/PhysRevB.54.1703


 -------------------------------------------------------------------------------
 -                                                                             -
 -                                T I M I N G                                  -
 -                                                                             -
 -------------------------------------------------------------------------------
 SUBROUTINE                       CALLS  ASD         SELF TIME        TOTAL TIME
                                MAXIMUM       AVERAGE  MAXIMUM  AVERAGE  MAXIMUM
 CP2K                                 1  1.0    0.022    0.033 2231.049 2231.058
 qs_energies                          1  2.0    0.009    0.026 2230.913 2230.925
 mp2_main                             1  3.0    0.018    0.025 2200.831 2200.843
 mp2_gpw_main                         1  4.0    0.020    0.033 2200.367 2200.390
 rpa_ri_compute_en                    1  5.0    0.000    0.000 2062.102 2062.113
 rpa_num_int                          1  6.0    0.025    0.031 1983.674 1983.685
 dbt_total                         1907  9.8    0.011    0.017 1207.054 1207.063
 dbt_contract                       765 11.0    0.042    0.048 1054.202 1055.177
 dbt_tas_total                     1206 13.4    2.728    5.053 1012.664 1012.668
 dbt_tas_multiply                  1065 12.8    0.003    0.003 1011.888 1011.894
 compute_QP_energies                  1  7.0    0.002    0.005  926.724  926.730
 compute_self_energy_cubic_gw_k       1  8.0    0.077    0.088  926.617  926.630
 dbt_tas_dbm                       1065 14.8    0.003    0.004  690.209  690.213
 rpa_num_int_RPA_matrix_operati      10  7.0    0.000    0.000  625.208  625.218
 invert_eps_compute_W_and_Erpa_      10  8.0    0.002    0.003  625.194  625.199
 dbm_multiply                      1065 16.8  543.760  577.119  543.760  577.119
 cp_cfm_heevd                       441 10.2  516.173  516.671  516.173  516.671
 cp_cfm_power                       312  9.7    0.091    0.109  496.818  496.981
 compute_Q_kp_RPA                   260  9.0    0.038    0.068  481.261  481.388
 contract_to_self_energy            198  9.0    0.003    0.004  444.456  445.420
 compute_mat_P_omega                  1  7.0    0.001    0.004  431.168  431.187
 compute_mat_P_omega_contract        10  8.0    1.922    2.128  428.490  428.499
 dbt_tas_mm_2                       289 15.0    0.002    0.002  361.312  361.314
 tensor_operation_3c_W               99  9.0    0.000    0.000  343.428  343.789
 mp_sync                           9390 12.7  233.042  288.676  233.042  288.676
 parallel_gemm_cfm                 4194 10.2    0.008    0.011  271.123  272.538
 parallel_gemm_cfm_cosma           4194 11.2  271.114  272.529  271.114  272.529
 compute_mat_P_omega_calc_P_t        90  9.0    0.000    0.000  192.906  192.907
 mp_waitall_2                      5628 16.6  141.150  159.791  141.150  159.791
 dbt_tas_mm_3N                      198 16.5    0.000    0.001  142.303  159.408
 dbm_redistribute                  2094 15.5  140.245  152.557  140.245  152.557
 mp2_ri_gpw_compute_in                1  5.0    0.008    0.032  138.231  138.236
 dbt_copy                           951 10.8    0.033    0.045  116.336  135.423
 dbt_reshape                        931 11.8   19.422   22.435  113.959  133.042
 trafo_to_mo_and_kpoints             21  9.0    0.099    0.105  129.740  129.742
 get_2c_integrals                     1  6.0    0.000    0.000  127.004  127.011
 convert_to_new_pgrid              3195 14.8   13.851   22.892  111.338  117.224
 compute_Wc_real_space_tau_GW       260  9.0    0.002    0.002  109.043  109.155
 compute_mat_P_omega_calc_M_occ      90  9.0    1.972    2.152  108.426  108.427
 dbt_communicate_buffer             931 12.8    0.085    0.102   90.033  107.868
 inversion_of_M_and_mult_with_c       1  7.0    0.000    0.001   91.585   91.588
 get_bandstruc_and_k_dependent_       1  6.0    0.000    0.000   78.427   78.428
 create_kp_and_calc_kp_orbitals       3  7.0    0.002    0.002   78.427   78.427
 cp_cfm_geeig                       129  8.0    0.001    0.002   70.547   70.632
 dbt_tas_communicate_buffer        1955 17.3    0.119    0.177   62.756   69.372
 compute_Wc_real_space_tau_GW_3     260 10.0    0.001    0.002   67.391   68.177
 dbt_tas_mm_3T                      396 16.5    0.001    0.001   59.749   63.882
 dbt_tas_replicate                  928 15.0    2.307    4.738   52.367   57.878
 compute_mat_P_omega_calc_M_vir      90  9.0    0.000    0.000   54.246   54.247
 dbt_tas_replicate_communicate_     717 16.3    0.019    0.034   47.956   53.674
 dbt_tas_mm_1N                      182 15.0    0.000    0.001   43.318   50.947
 copy_dbcsr_to_fm                  3888 10.4    0.044    0.053   39.453   47.458
 -------------------------------------------------------------------------------

 The number of warnings for this run is : 3
 
 -------------------------------------------------------------------------------
  **** **** ******  **  PROGRAM ENDED AT                 2023-10-19 21:29:52.061
 ***** ** ***  *** **   PROGRAM RAN ON                                  n2cn1107
 **    ****   ******    PROGRAM RAN BY                                  eprop2d1
 ***** **    ** ** **   PROGRAM PROCESS ID                                195082
  **** **  *******  **  PROGRAM STOPPED IN /scratch/hpc-prf-eprop2d/eprop2d1_Jan
                                           /08_develop_new_GW/08_MoS2/46_for_Chr
                                           is_Hans/2_6x6_cell_old_code
